    1C
    1UCCS Bistable Beam - 2D Plane Strain                               
    1UUSER                                                              
    1UDATE              24.february.2026                                
    1UTIME              02:56:34                                        
    1UHOST                                                              
    1UPGM               CalculiX                                        
    1UVERSION           Version 2.23                             
    1UCOMPILETIME       Sun Oct 19 18:23:34 CEST 2025                    
    1UDIR                                                               
    1UDBN                                                               
    1UMAT    1POLYSI                                                    
    2C                          4033                                     1
 -1         1 0.00000E+00 2.50000E-01 0.00000E+00
 -1         2 6.00000E-02 2.50032E-01 0.00000E+00
 -1         3 1.20000E-01 2.50127E-01 0.00000E+00
 -1         4 1.80000E-01 2.50286E-01 0.00000E+00
 -1         5 2.40000E-01 2.50508E-01 0.00000E+00
 -1         6 3.00000E-01 2.50793E-01 0.00000E+00
 -1         7 3.60000E-01 2.51142E-01 0.00000E+00
 -1         8 4.20000E-01 2.51553E-01 0.00000E+00
 -1         9 4.80000E-01 2.52028E-01 0.00000E+00
 -1        10 5.40000E-01 2.52566E-01 0.00000E+00
 -1        11 6.00000E-01 2.53167E-01 0.00000E+00
 -1        12 6.60000E-01 2.53830E-01 0.00000E+00
 -1        13 7.20000E-01 2.54556E-01 0.00000E+00
 -1        14 7.80000E-01 2.55344E-01 0.00000E+00
 -1        15 8.40000E-01 2.56195E-01 0.00000E+00
 -1        16 9.00000E-01 2.57107E-01 0.00000E+00
 -1        17 9.60000E-01 2.58081E-01 0.00000E+00
 -1        18 1.02000E+00 2.59117E-01 0.00000E+00
 -1        19 1.08000E+00 2.60213E-01 0.00000E+00
 -1        20 1.14000E+00 2.61371E-01 0.00000E+00
 -1        21 1.20000E+00 2.62589E-01 0.00000E+00
 -1        22 1.26000E+00 2.63868E-01 0.00000E+00
 -1        23 1.32000E+00 2.65207E-01 0.00000E+00
 -1        24 1.38000E+00 2.66605E-01 0.00000E+00
 -1        25 1.44000E+00 2.68063E-01 0.00000E+00
 -1        26 1.50000E+00 2.69580E-01 0.00000E+00
 -1        27 1.56000E+00 2.71156E-01 0.00000E+00
 -1        28 1.62000E+00 2.72789E-01 0.00000E+00
 -1        29 1.68000E+00 2.74481E-01 0.00000E+00
 -1        30 1.74000E+00 2.76230E-01 0.00000E+00
 -1        31 1.80000E+00 2.78036E-01 0.00000E+00
 -1        32 1.86000E+00 2.79898E-01 0.00000E+00
 -1        33 1.92000E+00 2.81817E-01 0.00000E+00
 -1        34 1.98000E+00 2.83791E-01 0.00000E+00
 -1        35 2.04000E+00 2.85821E-01 0.00000E+00
 -1        36 2.10000E+00 2.87905E-01 0.00000E+00
 -1        37 2.16000E+00 2.90043E-01 0.00000E+00
 -1        38 2.22000E+00 2.92234E-01 0.00000E+00
 -1        39 2.28000E+00 2.94479E-01 0.00000E+00
 -1        40 2.34000E+00 2.96776E-01 0.00000E+00
 -1        41 2.40000E+00 2.99125E-01 0.00000E+00
 -1        42 2.46000E+00 3.01526E-01 0.00000E+00
 -1        43 2.52000E+00 3.03977E-01 0.00000E+00
 -1        44 2.58000E+00 3.06479E-01 0.00000E+00
 -1        45 2.64000E+00 3.09030E-01 0.00000E+00
 -1        46 2.70000E+00 3.11629E-01 0.00000E+00
 -1        47 2.76000E+00 3.14277E-01 0.00000E+00
 -1        48 2.82000E+00 3.16973E-01 0.00000E+00
 -1        49 2.88000E+00 3.19716E-01 0.00000E+00
 -1        50 2.94000E+00 3.22505E-01 0.00000E+00
 -1        51 3.00000E+00 3.25339E-01 0.00000E+00
 -1        52 3.06000E+00 3.28219E-01 0.00000E+00
 -1        53 3.12000E+00 3.31142E-01 0.00000E+00
 -1        54 3.18000E+00 3.34109E-01 0.00000E+00
 -1        55 3.24000E+00 3.37119E-01 0.00000E+00
 -1        56 3.30000E+00 3.40170E-01 0.00000E+00
 -1        57 3.36000E+00 3.43263E-01 0.00000E+00
 -1        58 3.42000E+00 3.46397E-01 0.00000E+00
 -1        59 3.48000E+00 3.49570E-01 0.00000E+00
 -1        60 3.54000E+00 3.52782E-01 0.00000E+00
 -1        61 3.60000E+00 3.56032E-01 0.00000E+00
 -1        62 3.66000E+00 3.59319E-01 0.00000E+00
 -1        63 3.72000E+00 3.62643E-01 0.00000E+00
 -1        64 3.78000E+00 3.66002E-01 0.00000E+00
 -1        65 3.84000E+00 3.69397E-01 0.00000E+00
 -1        66 3.90000E+00 3.72825E-01 0.00000E+00
 -1        67 3.96000E+00 3.76286E-01 0.00000E+00
 -1        68 4.02000E+00 3.79780E-01 0.00000E+00
 -1        69 4.08000E+00 3.83305E-01 0.00000E+00
 -1        70 4.14000E+00 3.86861E-01 0.00000E+00
 -1        71 4.20000E+00 3.90447E-01 0.00000E+00
 -1        72 4.26000E+00 3.94061E-01 0.00000E+00
 -1        73 4.32000E+00 3.97703E-01 0.00000E+00
 -1        74 4.38000E+00 4.01373E-01 0.00000E+00
 -1        75 4.44000E+00 4.05068E-01 0.00000E+00
 -1        76 4.50000E+00 4.08789E-01 0.00000E+00
 -1        77 4.56000E+00 4.12534E-01 0.00000E+00
 -1        78 4.62000E+00 4.16302E-01 0.00000E+00
 -1        79 4.68000E+00 4.20093E-01 0.00000E+00
 -1        80 4.74000E+00 4.23905E-01 0.00000E+00
 -1        81 4.80000E+00 4.27738E-01 0.00000E+00
 -1        82 4.86000E+00 4.31590E-01 0.00000E+00
 -1        83 4.92000E+00 4.35461E-01 0.00000E+00
 -1        84 4.98000E+00 4.39350E-01 0.00000E+00
 -1        85 5.04000E+00 4.43471E-01 0.00000E+00
 -1        86 5.10000E+00 4.48523E-01 0.00000E+00
 -1        87 5.16000E+00 4.54549E-01 0.00000E+00
 -1        88 5.22000E+00 4.61529E-01 0.00000E+00
 -1        89 5.28000E+00 4.69435E-01 0.00000E+00
 -1        90 5.34000E+00 4.78231E-01 0.00000E+00
 -1        91 5.40000E+00 4.87874E-01 0.00000E+00
 -1        92 5.46000E+00 4.98313E-01 0.00000E+00
 -1        93 5.52000E+00 5.09488E-01 0.00000E+00
 -1        94 5.58000E+00 5.21336E-01 0.00000E+00
 -1        95 5.64000E+00 5.33786E-01 0.00000E+00
 -1        96 5.70000E+00 5.46762E-01 0.00000E+00
 -1        97 5.76000E+00 5.60184E-01 0.00000E+00
 -1        98 5.82000E+00 5.73968E-01 0.00000E+00
 -1        99 5.88000E+00 5.88025E-01 0.00000E+00
 -1       100 5.94000E+00 6.02266E-01 0.00000E+00
 -1       101 6.00000E+00 6.16599E-01 0.00000E+00
 -1       102 6.14000E+00 6.49886E-01 0.00000E+00
 -1       103 6.28000E+00 6.82024E-01 0.00000E+00
 -1       104 6.42000E+00 7.11919E-01 0.00000E+00
 -1       105 6.56000E+00 7.38585E-01 0.00000E+00
 -1       106 6.70000E+00 7.61192E-01 0.00000E+00
 -1       107 6.84000E+00 7.79104E-01 0.00000E+00
 -1       108 6.98000E+00 7.91915E-01 0.00000E+00
 -1       109 7.12000E+00 8.01396E-01 0.00000E+00
 -1       110 7.26000E+00 8.10824E-01 0.00000E+00
 -1       111 7.40000E+00 8.20252E-01 0.00000E+00
 -1       112 7.54000E+00 8.29679E-01 0.00000E+00
 -1       113 7.68000E+00 8.39107E-01 0.00000E+00
 -1       114 7.82000E+00 8.48535E-01 0.00000E+00
 -1       115 7.96000E+00 8.57963E-01 0.00000E+00
 -1       116 8.10000E+00 8.67391E-01 0.00000E+00
 -1       117 8.24000E+00 8.76818E-01 0.00000E+00
 -1       118 8.38000E+00 8.86246E-01 0.00000E+00
 -1       119 8.52000E+00 8.95674E-01 0.00000E+00
 -1       120 8.66000E+00 9.05102E-01 0.00000E+00
 -1       121 8.80000E+00 9.14529E-01 0.00000E+00
 -1       122 8.94000E+00 9.23957E-01 0.00000E+00
 -1       123 9.08000E+00 9.33385E-01 0.00000E+00
 -1       124 9.22000E+00 9.42813E-01 0.00000E+00
 -1       125 9.36000E+00 9.52240E-01 0.00000E+00
 -1       126 9.50000E+00 9.61668E-01 0.00000E+00
 -1       127 9.64000E+00 9.71096E-01 0.00000E+00
 -1       128 9.78000E+00 9.80524E-01 0.00000E+00
 -1       129 9.92000E+00 9.89951E-01 0.00000E+00
 -1       130 1.00600E+01 9.99379E-01 0.00000E+00
 -1       131 1.02000E+01 1.00881E+00 0.00000E+00
 -1       132 1.03400E+01 1.01823E+00 0.00000E+00
 -1       133 1.04800E+01 1.02766E+00 0.00000E+00
 -1       134 1.06200E+01 1.03709E+00 0.00000E+00
 -1       135 1.07600E+01 1.04652E+00 0.00000E+00
 -1       136 1.09000E+01 1.05595E+00 0.00000E+00
 -1       137 1.10400E+01 1.06537E+00 0.00000E+00
 -1       138 1.11800E+01 1.07480E+00 0.00000E+00
 -1       139 1.13200E+01 1.08423E+00 0.00000E+00
 -1       140 1.14600E+01 1.09366E+00 0.00000E+00
 -1       141 1.16000E+01 1.10308E+00 0.00000E+00
 -1       142 1.17400E+01 1.11251E+00 0.00000E+00
 -1       143 1.18800E+01 1.12194E+00 0.00000E+00
 -1       144 1.20200E+01 1.13137E+00 0.00000E+00
 -1       145 1.21600E+01 1.14080E+00 0.00000E+00
 -1       146 1.23000E+01 1.15022E+00 0.00000E+00
 -1       147 1.24400E+01 1.15965E+00 0.00000E+00
 -1       148 1.25800E+01 1.16908E+00 0.00000E+00
 -1       149 1.27200E+01 1.17851E+00 0.00000E+00
 -1       150 1.28600E+01 1.18793E+00 0.00000E+00
 -1       151 1.30000E+01 1.19736E+00 0.00000E+00
 -1       152 1.31400E+01 1.20679E+00 0.00000E+00
 -1       153 1.32800E+01 1.21622E+00 0.00000E+00
 -1       154 1.34200E+01 1.22565E+00 0.00000E+00
 -1       155 1.35600E+01 1.23507E+00 0.00000E+00
 -1       156 1.37000E+01 1.24450E+00 0.00000E+00
 -1       157 1.38400E+01 1.25393E+00 0.00000E+00
 -1       158 1.39800E+01 1.26336E+00 0.00000E+00
 -1       159 1.41200E+01 1.27278E+00 0.00000E+00
 -1       160 1.42600E+01 1.28221E+00 0.00000E+00
 -1       161 1.44000E+01 1.29164E+00 0.00000E+00
 -1       162 1.45400E+01 1.30107E+00 0.00000E+00
 -1       163 1.46800E+01 1.31050E+00 0.00000E+00
 -1       164 1.48200E+01 1.31992E+00 0.00000E+00
 -1       165 1.49600E+01 1.32935E+00 0.00000E+00
 -1       166 1.51000E+01 1.33878E+00 0.00000E+00
 -1       167 1.52400E+01 1.34821E+00 0.00000E+00
 -1       168 1.53800E+01 1.35763E+00 0.00000E+00
 -1       169 1.55200E+01 1.36706E+00 0.00000E+00
 -1       170 1.56600E+01 1.37649E+00 0.00000E+00
 -1       171 1.58000E+01 1.38592E+00 0.00000E+00
 -1       172 1.59400E+01 1.39534E+00 0.00000E+00
 -1       173 1.60800E+01 1.40477E+00 0.00000E+00
 -1       174 1.62200E+01 1.41420E+00 0.00000E+00
 -1       175 1.63600E+01 1.42363E+00 0.00000E+00
 -1       176 1.65000E+01 1.43306E+00 0.00000E+00
 -1       177 1.66400E+01 1.44248E+00 0.00000E+00
 -1       178 1.67800E+01 1.45191E+00 0.00000E+00
 -1       179 1.69200E+01 1.46134E+00 0.00000E+00
 -1       180 1.70600E+01 1.47077E+00 0.00000E+00
 -1       181 1.72000E+01 1.48019E+00 0.00000E+00
 -1       182 1.73400E+01 1.48962E+00 0.00000E+00
 -1       183 1.74800E+01 1.49905E+00 0.00000E+00
 -1       184 1.76200E+01 1.50848E+00 0.00000E+00
 -1       185 1.77600E+01 1.51791E+00 0.00000E+00
 -1       186 1.79000E+01 1.52733E+00 0.00000E+00
 -1       187 1.80400E+01 1.53676E+00 0.00000E+00
 -1       188 1.81800E+01 1.54619E+00 0.00000E+00
 -1       189 1.83200E+01 1.55562E+00 0.00000E+00
 -1       190 1.84600E+01 1.56504E+00 0.00000E+00
 -1       191 1.86000E+01 1.57447E+00 0.00000E+00
 -1       192 1.87400E+01 1.58390E+00 0.00000E+00
 -1       193 1.88800E+01 1.59333E+00 0.00000E+00
 -1       194 1.90200E+01 1.60276E+00 0.00000E+00
 -1       195 1.91600E+01 1.61218E+00 0.00000E+00
 -1       196 1.93000E+01 1.62161E+00 0.00000E+00
 -1       197 1.94400E+01 1.63104E+00 0.00000E+00
 -1       198 1.95800E+01 1.64047E+00 0.00000E+00
 -1       199 1.97200E+01 1.64989E+00 0.00000E+00
 -1       200 1.98600E+01 1.65932E+00 0.00000E+00
 -1       201 2.00000E+01 1.66875E+00 0.00000E+00
 -1       202 2.01400E+01 1.65932E+00 0.00000E+00
 -1       203 2.02800E+01 1.64989E+00 0.00000E+00
 -1       204 2.04200E+01 1.64047E+00 0.00000E+00
 -1       205 2.05600E+01 1.63104E+00 0.00000E+00
 -1       206 2.07000E+01 1.62161E+00 0.00000E+00
 -1       207 2.08400E+01 1.61218E+00 0.00000E+00
 -1       208 2.09800E+01 1.60276E+00 0.00000E+00
 -1       209 2.11200E+01 1.59333E+00 0.00000E+00
 -1       210 2.12600E+01 1.58390E+00 0.00000E+00
 -1       211 2.14000E+01 1.57447E+00 0.00000E+00
 -1       212 2.15400E+01 1.56504E+00 0.00000E+00
 -1       213 2.16800E+01 1.55562E+00 0.00000E+00
 -1       214 2.18200E+01 1.54619E+00 0.00000E+00
 -1       215 2.19600E+01 1.53676E+00 0.00000E+00
 -1       216 2.21000E+01 1.52733E+00 0.00000E+00
 -1       217 2.22400E+01 1.51791E+00 0.00000E+00
 -1       218 2.23800E+01 1.50848E+00 0.00000E+00
 -1       219 2.25200E+01 1.49905E+00 0.00000E+00
 -1       220 2.26600E+01 1.48962E+00 0.00000E+00
 -1       221 2.28000E+01 1.48019E+00 0.00000E+00
 -1       222 2.29400E+01 1.47077E+00 0.00000E+00
 -1       223 2.30800E+01 1.46134E+00 0.00000E+00
 -1       224 2.32200E+01 1.45191E+00 0.00000E+00
 -1       225 2.33600E+01 1.44248E+00 0.00000E+00
 -1       226 2.35000E+01 1.43306E+00 0.00000E+00
 -1       227 2.36400E+01 1.42363E+00 0.00000E+00
 -1       228 2.37800E+01 1.41420E+00 0.00000E+00
 -1       229 2.39200E+01 1.40477E+00 0.00000E+00
 -1       230 2.40600E+01 1.39534E+00 0.00000E+00
 -1       231 2.42000E+01 1.38592E+00 0.00000E+00
 -1       232 2.43400E+01 1.37649E+00 0.00000E+00
 -1       233 2.44800E+01 1.36706E+00 0.00000E+00
 -1       234 2.46200E+01 1.35763E+00 0.00000E+00
 -1       235 2.47600E+01 1.34821E+00 0.00000E+00
 -1       236 2.49000E+01 1.33878E+00 0.00000E+00
 -1       237 2.50400E+01 1.32935E+00 0.00000E+00
 -1       238 2.51800E+01 1.31992E+00 0.00000E+00
 -1       239 2.53200E+01 1.31050E+00 0.00000E+00
 -1       240 2.54600E+01 1.30107E+00 0.00000E+00
 -1       241 2.56000E+01 1.29164E+00 0.00000E+00
 -1       242 2.57400E+01 1.28221E+00 0.00000E+00
 -1       243 2.58800E+01 1.27278E+00 0.00000E+00
 -1       244 2.60200E+01 1.26336E+00 0.00000E+00
 -1       245 2.61600E+01 1.25393E+00 0.00000E+00
 -1       246 2.63000E+01 1.24450E+00 0.00000E+00
 -1       247 2.64400E+01 1.23507E+00 0.00000E+00
 -1       248 2.65800E+01 1.22565E+00 0.00000E+00
 -1       249 2.67200E+01 1.21622E+00 0.00000E+00
 -1       250 2.68600E+01 1.20679E+00 0.00000E+00
 -1       251 2.70000E+01 1.19736E+00 0.00000E+00
 -1       252 2.71400E+01 1.18793E+00 0.00000E+00
 -1       253 2.72800E+01 1.17851E+00 0.00000E+00
 -1       254 2.74200E+01 1.16908E+00 0.00000E+00
 -1       255 2.75600E+01 1.15965E+00 0.00000E+00
 -1       256 2.77000E+01 1.15022E+00 0.00000E+00
 -1       257 2.78400E+01 1.14080E+00 0.00000E+00
 -1       258 2.79800E+01 1.13137E+00 0.00000E+00
 -1       259 2.81200E+01 1.12194E+00 0.00000E+00
 -1       260 2.82600E+01 1.11251E+00 0.00000E+00
 -1       261 2.84000E+01 1.10308E+00 0.00000E+00
 -1       262 2.85400E+01 1.09366E+00 0.00000E+00
 -1       263 2.86800E+01 1.08423E+00 0.00000E+00
 -1       264 2.88200E+01 1.07480E+00 0.00000E+00
 -1       265 2.89600E+01 1.06537E+00 0.00000E+00
 -1       266 2.91000E+01 1.05595E+00 0.00000E+00
 -1       267 2.92400E+01 1.04652E+00 0.00000E+00
 -1       268 2.93800E+01 1.03709E+00 0.00000E+00
 -1       269 2.95200E+01 1.02766E+00 0.00000E+00
 -1       270 2.96600E+01 1.01823E+00 0.00000E+00
 -1       271 2.98000E+01 1.00881E+00 0.00000E+00
 -1       272 2.99400E+01 9.99379E-01 0.00000E+00
 -1       273 3.00800E+01 9.89951E-01 0.00000E+00
 -1       274 3.02200E+01 9.80524E-01 0.00000E+00
 -1       275 3.03600E+01 9.71096E-01 0.00000E+00
 -1       276 3.05000E+01 9.61668E-01 0.00000E+00
 -1       277 3.06400E+01 9.52240E-01 0.00000E+00
 -1       278 3.07800E+01 9.42813E-01 0.00000E+00
 -1       279 3.09200E+01 9.33385E-01 0.00000E+00
 -1       280 3.10600E+01 9.23957E-01 0.00000E+00
 -1       281 3.12000E+01 9.14529E-01 0.00000E+00
 -1       282 3.13400E+01 9.05102E-01 0.00000E+00
 -1       283 3.14800E+01 8.95674E-01 0.00000E+00
 -1       284 3.16200E+01 8.86246E-01 0.00000E+00
 -1       285 3.17600E+01 8.76818E-01 0.00000E+00
 -1       286 3.19000E+01 8.67391E-01 0.00000E+00
 -1       287 3.20400E+01 8.57963E-01 0.00000E+00
 -1       288 3.21800E+01 8.48535E-01 0.00000E+00
 -1       289 3.23200E+01 8.39107E-01 0.00000E+00
 -1       290 3.24600E+01 8.29679E-01 0.00000E+00
 -1       291 3.26000E+01 8.20252E-01 0.00000E+00
 -1       292 3.27400E+01 8.10824E-01 0.00000E+00
 -1       293 3.28800E+01 8.01396E-01 0.00000E+00
 -1       294 3.30200E+01 7.91915E-01 0.00000E+00
 -1       295 3.31600E+01 7.79104E-01 0.00000E+00
 -1       296 3.33000E+01 7.61192E-01 0.00000E+00
 -1       297 3.34400E+01 7.38585E-01 0.00000E+00
 -1       298 3.35800E+01 7.11919E-01 0.00000E+00
 -1       299 3.37200E+01 6.82024E-01 0.00000E+00
 -1       300 3.38600E+01 6.49886E-01 0.00000E+00
 -1       301 3.40000E+01 6.16599E-01 0.00000E+00
 -1       302 3.40606E+01 6.02121E-01 0.00000E+00
 -1       303 3.41212E+01 5.87739E-01 0.00000E+00
 -1       304 3.41818E+01 5.73545E-01 0.00000E+00
 -1       305 3.42424E+01 5.59634E-01 0.00000E+00
 -1       306 3.43030E+01 5.46096E-01 0.00000E+00
 -1       307 3.43636E+01 5.33016E-01 0.00000E+00
 -1       308 3.44242E+01 5.20478E-01 0.00000E+00
 -1       309 3.44848E+01 5.08559E-01 0.00000E+00
 -1       310 3.45455E+01 4.97332E-01 0.00000E+00
 -1       311 3.46061E+01 4.86863E-01 0.00000E+00
 -1       312 3.46667E+01 4.77211E-01 0.00000E+00
 -1       313 3.47273E+01 4.68428E-01 0.00000E+00
 -1       314 3.47879E+01 4.60558E-01 0.00000E+00
 -1       315 3.48485E+01 4.53638E-01 0.00000E+00
 -1       316 3.49091E+01 4.47695E-01 0.00000E+00
 -1       317 3.49697E+01 4.42747E-01 0.00000E+00
 -1       318 3.50303E+01 4.38681E-01 0.00000E+00
 -1       319 3.50909E+01 4.34756E-01 0.00000E+00
 -1       320 3.51515E+01 4.30849E-01 0.00000E+00
 -1       321 3.52121E+01 4.26962E-01 0.00000E+00
 -1       322 3.52727E+01 4.23094E-01 0.00000E+00
 -1       323 3.53333E+01 4.19248E-01 0.00000E+00
 -1       324 3.53939E+01 4.15424E-01 0.00000E+00
 -1       325 3.54545E+01 4.11624E-01 0.00000E+00
 -1       326 3.55152E+01 4.07847E-01 0.00000E+00
 -1       327 3.55758E+01 4.04095E-01 0.00000E+00
 -1       328 3.56364E+01 4.00369E-01 0.00000E+00
 -1       329 3.56970E+01 3.96671E-01 0.00000E+00
 -1       330 3.57576E+01 3.93000E-01 0.00000E+00
 -1       331 3.58182E+01 3.89357E-01 0.00000E+00
 -1       332 3.58788E+01 3.85745E-01 0.00000E+00
 -1       333 3.59394E+01 3.82163E-01 0.00000E+00
 -1       334 3.60000E+01 3.78612E-01 0.00000E+00
 -1       335 3.60606E+01 3.75094E-01 0.00000E+00
 -1       336 3.61212E+01 3.71609E-01 0.00000E+00
 -1       337 3.61818E+01 3.68158E-01 0.00000E+00
 -1       338 3.62424E+01 3.64743E-01 0.00000E+00
 -1       339 3.63030E+01 3.61363E-01 0.00000E+00
 -1       340 3.63636E+01 3.58020E-01 0.00000E+00
 -1       341 3.64242E+01 3.54714E-01 0.00000E+00
 -1       342 3.64848E+01 3.51447E-01 0.00000E+00
 -1       343 3.65455E+01 3.48219E-01 0.00000E+00
 -1       344 3.66061E+01 3.45031E-01 0.00000E+00
 -1       345 3.66667E+01 3.41884E-01 0.00000E+00
 -1       346 3.67273E+01 3.38778E-01 0.00000E+00
 -1       347 3.67879E+01 3.35715E-01 0.00000E+00
 -1       348 3.68485E+01 3.32695E-01 0.00000E+00
 -1       349 3.69091E+01 3.29719E-01 0.00000E+00
 -1       350 3.69697E+01 3.26788E-01 0.00000E+00
 -1       351 3.70303E+01 3.23902E-01 0.00000E+00
 -1       352 3.70909E+01 3.21062E-01 0.00000E+00
 -1       353 3.71515E+01 3.18269E-01 0.00000E+00
 -1       354 3.72121E+01 3.15524E-01 0.00000E+00
 -1       355 3.72727E+01 3.12827E-01 0.00000E+00
 -1       356 3.73333E+01 3.10179E-01 0.00000E+00
 -1       357 3.73939E+01 3.07581E-01 0.00000E+00
 -1       358 3.74545E+01 3.05032E-01 0.00000E+00
 -1       359 3.75152E+01 3.02535E-01 0.00000E+00
 -1       360 3.75758E+01 3.00089E-01 0.00000E+00
 -1       361 3.76364E+01 2.97696E-01 0.00000E+00
 -1       362 3.76970E+01 2.95355E-01 0.00000E+00
 -1       363 3.77576E+01 2.93067E-01 0.00000E+00
 -1       364 3.78182E+01 2.90833E-01 0.00000E+00
 -1       365 3.78788E+01 2.88654E-01 0.00000E+00
 -1       366 3.79394E+01 2.86530E-01 0.00000E+00
 -1       367 3.80000E+01 2.84461E-01 0.00000E+00
 -1       368 3.80606E+01 2.82449E-01 0.00000E+00
 -1       369 3.81212E+01 2.80493E-01 0.00000E+00
 -1       370 3.81818E+01 2.78594E-01 0.00000E+00
 -1       371 3.82424E+01 2.76753E-01 0.00000E+00
 -1       372 3.83030E+01 2.74970E-01 0.00000E+00
 -1       373 3.83636E+01 2.73245E-01 0.00000E+00
 -1       374 3.84242E+01 2.71579E-01 0.00000E+00
 -1       375 3.84848E+01 2.69972E-01 0.00000E+00
 -1       376 3.85455E+01 2.68425E-01 0.00000E+00
 -1       377 3.86061E+01 2.66939E-01 0.00000E+00
 -1       378 3.86667E+01 2.65513E-01 0.00000E+00
 -1       379 3.87273E+01 2.64147E-01 0.00000E+00
 -1       380 3.87879E+01 2.62843E-01 0.00000E+00
 -1       381 3.88485E+01 2.61600E-01 0.00000E+00
 -1       382 3.89091E+01 2.60419E-01 0.00000E+00
 -1       383 3.89697E+01 2.59301E-01 0.00000E+00
 -1       384 3.90303E+01 2.58244E-01 0.00000E+00
 -1       385 3.90909E+01 2.57251E-01 0.00000E+00
 -1       386 3.91515E+01 2.56320E-01 0.00000E+00
 -1       387 3.92121E+01 2.55453E-01 0.00000E+00
 -1       388 3.92727E+01 2.54648E-01 0.00000E+00
 -1       389 3.93333E+01 2.53908E-01 0.00000E+00
 -1       390 3.93939E+01 2.53231E-01 0.00000E+00
 -1       391 3.94545E+01 2.52618E-01 0.00000E+00
 -1       392 3.95152E+01 2.52069E-01 0.00000E+00
 -1       393 3.95758E+01 2.51585E-01 0.00000E+00
 -1       394 3.96364E+01 2.51165E-01 0.00000E+00
 -1       395 3.96970E+01 2.50809E-01 0.00000E+00
 -1       396 3.97576E+01 2.50518E-01 0.00000E+00
 -1       397 3.98182E+01 2.50291E-01 0.00000E+00
 -1       398 3.98788E+01 2.50129E-01 0.00000E+00
 -1       399 3.99394E+01 2.50032E-01 0.00000E+00
 -1       400 4.00000E+01 2.50000E-01 0.00000E+00
 -1       401 4.00000E+01-2.50000E-01 0.00000E+00
 -1       402 3.99394E+01-2.49968E-01 0.00000E+00
 -1       403 3.98788E+01-2.49870E-01 0.00000E+00
 -1       404 3.98182E+01-2.49709E-01 0.00000E+00
 -1       405 3.97576E+01-2.49482E-01 0.00000E+00
 -1       406 3.96970E+01-2.49191E-01 0.00000E+00
 -1       407 3.96364E+01-2.48835E-01 0.00000E+00
 -1       408 3.95758E+01-2.48415E-01 0.00000E+00
 -1       409 3.95152E+01-2.47931E-01 0.00000E+00
 -1       410 3.94545E+01-2.47382E-01 0.00000E+00
 -1       411 3.93939E+01-2.46769E-01 0.00000E+00
 -1       412 3.93333E+01-2.46092E-01 0.00000E+00
 -1       413 3.92727E+01-2.45352E-01 0.00000E+00
 -1       414 3.92121E+01-2.44547E-01 0.00000E+00
 -1       415 3.91515E+01-2.43680E-01 0.00000E+00
 -1       416 3.90909E+01-2.42749E-01 0.00000E+00
 -1       417 3.90303E+01-2.41756E-01 0.00000E+00
 -1       418 3.89697E+01-2.40699E-01 0.00000E+00
 -1       419 3.89091E+01-2.39581E-01 0.00000E+00
 -1       420 3.88485E+01-2.38400E-01 0.00000E+00
 -1       421 3.87879E+01-2.37157E-01 0.00000E+00
 -1       422 3.87273E+01-2.35853E-01 0.00000E+00
 -1       423 3.86667E+01-2.34487E-01 0.00000E+00
 -1       424 3.86061E+01-2.33061E-01 0.00000E+00
 -1       425 3.85455E+01-2.31575E-01 0.00000E+00
 -1       426 3.84848E+01-2.30028E-01 0.00000E+00
 -1       427 3.84242E+01-2.28421E-01 0.00000E+00
 -1       428 3.83636E+01-2.26755E-01 0.00000E+00
 -1       429 3.83030E+01-2.25030E-01 0.00000E+00
 -1       430 3.82424E+01-2.23247E-01 0.00000E+00
 -1       431 3.81818E+01-2.21406E-01 0.00000E+00
 -1       432 3.81212E+01-2.19507E-01 0.00000E+00
 -1       433 3.80606E+01-2.17551E-01 0.00000E+00
 -1       434 3.80000E+01-2.15539E-01 0.00000E+00
 -1       435 3.79394E+01-2.13470E-01 0.00000E+00
 -1       436 3.78788E+01-2.11346E-01 0.00000E+00
 -1       437 3.78182E+01-2.09167E-01 0.00000E+00
 -1       438 3.77576E+01-2.06933E-01 0.00000E+00
 -1       439 3.76970E+01-2.04645E-01 0.00000E+00
 -1       440 3.76364E+01-2.02304E-01 0.00000E+00
 -1       441 3.75758E+01-1.99911E-01 0.00000E+00
 -1       442 3.75152E+01-1.97465E-01 0.00000E+00
 -1       443 3.74545E+01-1.94968E-01 0.00000E+00
 -1       444 3.73939E+01-1.92419E-01 0.00000E+00
 -1       445 3.73333E+01-1.89821E-01 0.00000E+00
 -1       446 3.72727E+01-1.87173E-01 0.00000E+00
 -1       447 3.72121E+01-1.84476E-01 0.00000E+00
 -1       448 3.71515E+01-1.81731E-01 0.00000E+00
 -1       449 3.70909E+01-1.78938E-01 0.00000E+00
 -1       450 3.70303E+01-1.76098E-01 0.00000E+00
 -1       451 3.69697E+01-1.73212E-01 0.00000E+00
 -1       452 3.69091E+01-1.70281E-01 0.00000E+00
 -1       453 3.68485E+01-1.67305E-01 0.00000E+00
 -1       454 3.67879E+01-1.64285E-01 0.00000E+00
 -1       455 3.67273E+01-1.61222E-01 0.00000E+00
 -1       456 3.66667E+01-1.58116E-01 0.00000E+00
 -1       457 3.66061E+01-1.54969E-01 0.00000E+00
 -1       458 3.65455E+01-1.51781E-01 0.00000E+00
 -1       459 3.64848E+01-1.48553E-01 0.00000E+00
 -1       460 3.64242E+01-1.45286E-01 0.00000E+00
 -1       461 3.63636E+01-1.41980E-01 0.00000E+00
 -1       462 3.63030E+01-1.38637E-01 0.00000E+00
 -1       463 3.62424E+01-1.35257E-01 0.00000E+00
 -1       464 3.61818E+01-1.31842E-01 0.00000E+00
 -1       465 3.61212E+01-1.28391E-01 0.00000E+00
 -1       466 3.60606E+01-1.24906E-01 0.00000E+00
 -1       467 3.60000E+01-1.21388E-01 0.00000E+00
 -1       468 3.59394E+01-1.17837E-01 0.00000E+00
 -1       469 3.58788E+01-1.14255E-01 0.00000E+00
 -1       470 3.58182E+01-1.10643E-01 0.00000E+00
 -1       471 3.57576E+01-1.07000E-01 0.00000E+00
 -1       472 3.56970E+01-1.03329E-01 0.00000E+00
 -1       473 3.56364E+01-9.96306E-02 0.00000E+00
 -1       474 3.55758E+01-9.59048E-02 0.00000E+00
 -1       475 3.55152E+01-9.21531E-02 0.00000E+00
 -1       476 3.54545E+01-8.83764E-02 0.00000E+00
 -1       477 3.53939E+01-8.45756E-02 0.00000E+00
 -1       478 3.53333E+01-8.07517E-02 0.00000E+00
 -1       479 3.52727E+01-7.69056E-02 0.00000E+00
 -1       480 3.52121E+01-7.30384E-02 0.00000E+00
 -1       481 3.51515E+01-6.91509E-02 0.00000E+00
 -1       482 3.50909E+01-6.52442E-02 0.00000E+00
 -1       483 3.50303E+01-6.13193E-02 0.00000E+00
 -1       484 3.49697E+01-5.75011E-02 0.00000E+00
 -1       485 3.49091E+01-5.45320E-02 0.00000E+00
 -1       486 3.48485E+01-5.25281E-02 0.00000E+00
 -1       487 3.47879E+01-5.14726E-02 0.00000E+00
 -1       488 3.47273E+01-5.13398E-02 0.00000E+00
 -1       489 3.46667E+01-5.20958E-02 0.00000E+00
 -1       490 3.46061E+01-5.36984E-02 0.00000E+00
 -1       491 3.45455E+01-5.60975E-02 0.00000E+00
 -1       492 3.44848E+01-5.92361E-02 0.00000E+00
 -1       493 3.44242E+01-6.30499E-02 0.00000E+00
 -1       494 3.43636E+01-6.74689E-02 0.00000E+00
 -1       495 3.43030E+01-7.24173E-02 0.00000E+00
 -1       496 3.42424E+01-7.78144E-02 0.00000E+00
 -1       497 3.41818E+01-8.35755E-02 0.00000E+00
 -1       498 3.41212E+01-8.96127E-02 0.00000E+00
 -1       499 3.40606E+01-9.58352E-02 0.00000E+00
 -1       500 3.40000E+01-1.02151E-01 0.00000E+00
 -1       501 3.38600E+01-1.16582E-01 0.00000E+00
 -1       502 3.37200E+01-1.29865E-01 0.00000E+00
 -1       503 3.35800E+01-1.40904E-01 0.00000E+00
 -1       504 3.34400E+01-1.48715E-01 0.00000E+00
 -1       505 3.33000E+01-1.52466E-01 0.00000E+00
 -1       506 3.31600E+01-1.51523E-01 0.00000E+00
 -1       507 3.30200E+01-1.45478E-01 0.00000E+00
 -1       508 3.28800E+01-1.36104E-01 0.00000E+00
 -1       509 3.27400E+01-1.26676E-01 0.00000E+00
 -1       510 3.26000E+01-1.17248E-01 0.00000E+00
 -1       511 3.24600E+01-1.07820E-01 0.00000E+00
 -1       512 3.23200E+01-9.83927E-02 0.00000E+00
 -1       513 3.21800E+01-8.89650E-02 0.00000E+00
 -1       514 3.20400E+01-7.95372E-02 0.00000E+00
 -1       515 3.19000E+01-7.01094E-02 0.00000E+00
 -1       516 3.17600E+01-6.06817E-02 0.00000E+00
 -1       517 3.16200E+01-5.12539E-02 0.00000E+00
 -1       518 3.14800E+01-4.18262E-02 0.00000E+00
 -1       519 3.13400E+01-3.23984E-02 0.00000E+00
 -1       520 3.12000E+01-2.29707E-02 0.00000E+00
 -1       521 3.10600E+01-1.35429E-02 0.00000E+00
 -1       522 3.09200E+01-4.11515E-03 0.00000E+00
 -1       523 3.07800E+01 5.31261E-03 0.00000E+00
 -1       524 3.06400E+01 1.47404E-02 0.00000E+00
 -1       525 3.05000E+01 2.41681E-02 0.00000E+00
 -1       526 3.03600E+01 3.35959E-02 0.00000E+00
 -1       527 3.02200E+01 4.30236E-02 0.00000E+00
 -1       528 3.00800E+01 5.24514E-02 0.00000E+00
 -1       529 2.99400E+01 6.18792E-02 0.00000E+00
 -1       530 2.98000E+01 7.13069E-02 0.00000E+00
 -1       531 2.96600E+01 8.07347E-02 0.00000E+00
 -1       532 2.95200E+01 9.01624E-02 0.00000E+00
 -1       533 2.93800E+01 9.95902E-02 0.00000E+00
 -1       534 2.92400E+01 1.09018E-01 0.00000E+00
 -1       535 2.91000E+01 1.18446E-01 0.00000E+00
 -1       536 2.89600E+01 1.27873E-01 0.00000E+00
 -1       537 2.88200E+01 1.37301E-01 0.00000E+00
 -1       538 2.86800E+01 1.46729E-01 0.00000E+00
 -1       539 2.85400E+01 1.56157E-01 0.00000E+00
 -1       540 2.84000E+01 1.65585E-01 0.00000E+00
 -1       541 2.82600E+01 1.75012E-01 0.00000E+00
 -1       542 2.81200E+01 1.84440E-01 0.00000E+00
 -1       543 2.79800E+01 1.93868E-01 0.00000E+00
 -1       544 2.78400E+01 2.03296E-01 0.00000E+00
 -1       545 2.77000E+01 2.12723E-01 0.00000E+00
 -1       546 2.75600E+01 2.22151E-01 0.00000E+00
 -1       547 2.74200E+01 2.31579E-01 0.00000E+00
 -1       548 2.72800E+01 2.41007E-01 0.00000E+00
 -1       549 2.71400E+01 2.50434E-01 0.00000E+00
 -1       550 2.70000E+01 2.59862E-01 0.00000E+00
 -1       551 2.68600E+01 2.69290E-01 0.00000E+00
 -1       552 2.67200E+01 2.78718E-01 0.00000E+00
 -1       553 2.65800E+01 2.88145E-01 0.00000E+00
 -1       554 2.64400E+01 2.97573E-01 0.00000E+00
 -1       555 2.63000E+01 3.07001E-01 0.00000E+00
 -1       556 2.61600E+01 3.16429E-01 0.00000E+00
 -1       557 2.60200E+01 3.25856E-01 0.00000E+00
 -1       558 2.58800E+01 3.35284E-01 0.00000E+00
 -1       559 2.57400E+01 3.44712E-01 0.00000E+00
 -1       560 2.56000E+01 3.54140E-01 0.00000E+00
 -1       561 2.54600E+01 3.63567E-01 0.00000E+00
 -1       562 2.53200E+01 3.72995E-01 0.00000E+00
 -1       563 2.51800E+01 3.82423E-01 0.00000E+00
 -1       564 2.50400E+01 3.91851E-01 0.00000E+00
 -1       565 2.49000E+01 4.01278E-01 0.00000E+00
 -1       566 2.47600E+01 4.10706E-01 0.00000E+00
 -1       567 2.46200E+01 4.20134E-01 0.00000E+00
 -1       568 2.44800E+01 4.29562E-01 0.00000E+00
 -1       569 2.43400E+01 4.38989E-01 0.00000E+00
 -1       570 2.42000E+01 4.48417E-01 0.00000E+00
 -1       571 2.40600E+01 4.57845E-01 0.00000E+00
 -1       572 2.39200E+01 4.67273E-01 0.00000E+00
 -1       573 2.37800E+01 4.76701E-01 0.00000E+00
 -1       574 2.36400E+01 4.86128E-01 0.00000E+00
 -1       575 2.35000E+01 4.95556E-01 0.00000E+00
 -1       576 2.33600E+01 5.04984E-01 0.00000E+00
 -1       577 2.32200E+01 5.14412E-01 0.00000E+00
 -1       578 2.30800E+01 5.23839E-01 0.00000E+00
 -1       579 2.29400E+01 5.33267E-01 0.00000E+00
 -1       580 2.28000E+01 5.42695E-01 0.00000E+00
 -1       581 2.26600E+01 5.52123E-01 0.00000E+00
 -1       582 2.25200E+01 5.61550E-01 0.00000E+00