    1C
    1UCCS Bistable Half-Beam - 2D Plane Strain                          
    1UUSER                                                              
    1UDATE              24.february.2026                                
    1UTIME              14:00:42                                        
    1UHOST                                                              
    1UPGM               CalculiX                                        
    1UVERSION           Version 2.23                             
    1UCOMPILETIME       Sun Oct 19 18:23:34 CEST 2025                    
    1UDIR                                                               
    1UDBN                                                               
    1UMAT    1POLYSI                                                    
    2C                          2505                                     1
 -1         1 0.00000E+00 2.50000E-01 0.00000E+00
 -1         2 4.51128E-02 2.50020E-01 0.00000E+00
 -1         3 9.02256E-02 2.50082E-01 0.00000E+00
 -1         4 1.35338E-01 2.50184E-01 0.00000E+00
 -1         5 1.80451E-01 2.50327E-01 0.00000E+00
 -1         6 2.25564E-01 2.50511E-01 0.00000E+00
 -1         7 2.70677E-01 2.50736E-01 0.00000E+00
 -1         8 3.15789E-01 2.51001E-01 0.00000E+00
 -1         9 3.60902E-01 2.51307E-01 0.00000E+00
 -1        10 4.06015E-01 2.51654E-01 0.00000E+00
 -1        11 4.51128E-01 2.52042E-01 0.00000E+00
 -1        12 4.96241E-01 2.52470E-01 0.00000E+00
 -1        13 5.41353E-01 2.52939E-01 0.00000E+00
 -1        14 5.86466E-01 2.53448E-01 0.00000E+00
 -1        15 6.31579E-01 2.53997E-01 0.00000E+00
 -1        16 6.76692E-01 2.54587E-01 0.00000E+00
 -1        17 7.21804E-01 2.55217E-01 0.00000E+00
 -1        18 7.66917E-01 2.55888E-01 0.00000E+00
 -1        19 8.12030E-01 2.56598E-01 0.00000E+00
 -1        20 8.57143E-01 2.57348E-01 0.00000E+00
 -1        21 9.02256E-01 2.58138E-01 0.00000E+00
 -1        22 9.47368E-01 2.58968E-01 0.00000E+00
 -1        23 9.92481E-01 2.59838E-01 0.00000E+00
 -1        24 1.03759E+00 2.60747E-01 0.00000E+00
 -1        25 1.08271E+00 2.61695E-01 0.00000E+00
 -1        26 1.12782E+00 2.62683E-01 0.00000E+00
 -1        27 1.17293E+00 2.63710E-01 0.00000E+00
 -1        28 1.21805E+00 2.64776E-01 0.00000E+00
 -1        29 1.26316E+00 2.65880E-01 0.00000E+00
 -1        30 1.30827E+00 2.67023E-01 0.00000E+00
 -1        31 1.35338E+00 2.68205E-01 0.00000E+00
 -1        32 1.39850E+00 2.69425E-01 0.00000E+00
 -1        33 1.44361E+00 2.70683E-01 0.00000E+00
 -1        34 1.48872E+00 2.71980E-01 0.00000E+00
 -1        35 1.53383E+00 2.73314E-01 0.00000E+00
 -1        36 1.57895E+00 2.74685E-01 0.00000E+00
 -1        37 1.62406E+00 2.76095E-01 0.00000E+00
 -1        38 1.66917E+00 2.77541E-01 0.00000E+00
 -1        39 1.71429E+00 2.79024E-01 0.00000E+00
 -1        40 1.75940E+00 2.80545E-01 0.00000E+00
 -1        41 1.80451E+00 2.82102E-01 0.00000E+00
 -1        42 1.84962E+00 2.83695E-01 0.00000E+00
 -1        43 1.89474E+00 2.85324E-01 0.00000E+00
 -1        44 1.93985E+00 2.86990E-01 0.00000E+00
 -1        45 1.98496E+00 2.88691E-01 0.00000E+00
 -1        46 2.03008E+00 2.90427E-01 0.00000E+00
 -1        47 2.07519E+00 2.92199E-01 0.00000E+00
 -1        48 2.12030E+00 2.94006E-01 0.00000E+00
 -1        49 2.16541E+00 2.95848E-01 0.00000E+00
 -1        50 2.21053E+00 2.97724E-01 0.00000E+00
 -1        51 2.25564E+00 2.99634E-01 0.00000E+00
 -1        52 2.30075E+00 3.01578E-01 0.00000E+00
 -1        53 2.34586E+00 3.03556E-01 0.00000E+00
 -1        54 2.39098E+00 3.05568E-01 0.00000E+00
 -1        55 2.43609E+00 3.07612E-01 0.00000E+00
 -1        56 2.48120E+00 3.09690E-01 0.00000E+00
 -1        57 2.52632E+00 3.11799E-01 0.00000E+00
 -1        58 2.57143E+00 3.13942E-01 0.00000E+00
 -1        59 2.61654E+00 3.16116E-01 0.00000E+00
 -1        60 2.66165E+00 3.18321E-01 0.00000E+00
 -1        61 2.70677E+00 3.20559E-01 0.00000E+00
 -1        62 2.75188E+00 3.22827E-01 0.00000E+00
 -1        63 2.79699E+00 3.25126E-01 0.00000E+00
 -1        64 2.84211E+00 3.27455E-01 0.00000E+00
 -1        65 2.88722E+00 3.29814E-01 0.00000E+00
 -1        66 2.93233E+00 3.32203E-01 0.00000E+00
 -1        67 2.97744E+00 3.34622E-01 0.00000E+00
 -1        68 3.02256E+00 3.37070E-01 0.00000E+00
 -1        69 3.06767E+00 3.39546E-01 0.00000E+00
 -1        70 3.11278E+00 3.42051E-01 0.00000E+00
 -1        71 3.15789E+00 3.44583E-01 0.00000E+00
 -1        72 3.20301E+00 3.47144E-01 0.00000E+00
 -1        73 3.24812E+00 3.49732E-01 0.00000E+00
 -1        74 3.29323E+00 3.52347E-01 0.00000E+00
 -1        75 3.33835E+00 3.54988E-01 0.00000E+00
 -1        76 3.38346E+00 3.57655E-01 0.00000E+00
 -1        77 3.42857E+00 3.60349E-01 0.00000E+00
 -1        78 3.47368E+00 3.63068E-01 0.00000E+00
 -1        79 3.51880E+00 3.65812E-01 0.00000E+00
 -1        80 3.56391E+00 3.68581E-01 0.00000E+00
 -1        81 3.60902E+00 3.71374E-01 0.00000E+00
 -1        82 3.65414E+00 3.74191E-01 0.00000E+00
 -1        83 3.69925E+00 3.77032E-01 0.00000E+00
 -1        84 3.74436E+00 3.79895E-01 0.00000E+00
 -1        85 3.78947E+00 3.82782E-01 0.00000E+00
 -1        86 3.83459E+00 3.85691E-01 0.00000E+00
 -1        87 3.87970E+00 3.88622E-01 0.00000E+00
 -1        88 3.92481E+00 3.91574E-01 0.00000E+00
 -1        89 3.96992E+00 3.94548E-01 0.00000E+00
 -1        90 4.01504E+00 3.97542E-01 0.00000E+00
 -1        91 4.06015E+00 4.00557E-01 0.00000E+00
 -1        92 4.10526E+00 4.03591E-01 0.00000E+00
 -1        93 4.15038E+00 4.06645E-01 0.00000E+00
 -1        94 4.19549E+00 4.09718E-01 0.00000E+00
 -1        95 4.24060E+00 4.12810E-01 0.00000E+00
 -1        96 4.28571E+00 4.15919E-01 0.00000E+00
 -1        97 4.33083E+00 4.19047E-01 0.00000E+00
 -1        98 4.37594E+00 4.22192E-01 0.00000E+00
 -1        99 4.42105E+00 4.25353E-01 0.00000E+00
 -1       100 4.46617E+00 4.28531E-01 0.00000E+00
 -1       101 4.51128E+00 4.31725E-01 0.00000E+00
 -1       102 4.55639E+00 4.34935E-01 0.00000E+00
 -1       103 4.60150E+00 4.38160E-01 0.00000E+00
 -1       104 4.64662E+00 4.41399E-01 0.00000E+00
 -1       105 4.69173E+00 4.44652E-01 0.00000E+00
 -1       106 4.73684E+00 4.47919E-01 0.00000E+00
 -1       107 4.78195E+00 4.51200E-01 0.00000E+00
 -1       108 4.82707E+00 4.54493E-01 0.00000E+00
 -1       109 4.87218E+00 4.57799E-01 0.00000E+00
 -1       110 4.91729E+00 4.61116E-01 0.00000E+00
 -1       111 4.96241E+00 4.64445E-01 0.00000E+00
 -1       112 5.00752E+00 4.67793E-01 0.00000E+00
 -1       113 5.05263E+00 4.71509E-01 0.00000E+00
 -1       114 5.09774E+00 4.75783E-01 0.00000E+00
 -1       115 5.14286E+00 4.80609E-01 0.00000E+00
 -1       116 5.18797E+00 4.85979E-01 0.00000E+00
 -1       117 5.23308E+00 4.91883E-01 0.00000E+00
 -1       118 5.27820E+00 4.98307E-01 0.00000E+00
 -1       119 5.32331E+00 5.05237E-01 0.00000E+00
 -1       120 5.36842E+00 5.12654E-01 0.00000E+00
 -1       121 5.41353E+00 5.20537E-01 0.00000E+00
 -1       122 5.45865E+00 5.28863E-01 0.00000E+00
 -1       123 5.50376E+00 5.37608E-01 0.00000E+00
 -1       124 5.54887E+00 5.46744E-01 0.00000E+00
 -1       125 5.59399E+00 5.56242E-01 0.00000E+00
 -1       126 5.63910E+00 5.66071E-01 0.00000E+00
 -1       127 5.68421E+00 5.76199E-01 0.00000E+00
 -1       128 5.72932E+00 5.86592E-01 0.00000E+00
 -1       129 5.77444E+00 5.97214E-01 0.00000E+00
 -1       130 5.81955E+00 6.08029E-01 0.00000E+00
 -1       131 5.86466E+00 6.18999E-01 0.00000E+00
 -1       132 5.90977E+00 6.30087E-01 0.00000E+00
 -1       133 5.95489E+00 6.41253E-01 0.00000E+00
 -1       134 6.00000E+00 6.52459E-01 0.00000E+00
 -1       135 6.06015E+00 6.67393E-01 0.00000E+00
 -1       136 6.12030E+00 6.82235E-01 0.00000E+00
 -1       137 6.18045E+00 6.96894E-01 0.00000E+00
 -1       138 6.24060E+00 7.11279E-01 0.00000E+00
 -1       139 6.30075E+00 7.25305E-01 0.00000E+00
 -1       140 6.36090E+00 7.38887E-01 0.00000E+00
 -1       141 6.42105E+00 7.51945E-01 0.00000E+00
 -1       142 6.48120E+00 7.64404E-01 0.00000E+00
 -1       143 6.54135E+00 7.76193E-01 0.00000E+00
 -1       144 6.60150E+00 7.87249E-01 0.00000E+00
 -1       145 6.66165E+00 7.97515E-01 0.00000E+00
 -1       146 6.72180E+00 8.06939E-01 0.00000E+00
 -1       147 6.78195E+00 8.15479E-01 0.00000E+00
 -1       148 6.84211E+00 8.23101E-01 0.00000E+00
 -1       149 6.90226E+00 8.29776E-01 0.00000E+00
 -1       150 6.96241E+00 8.35487E-01 0.00000E+00
 -1       151 7.02256E+00 8.40293E-01 0.00000E+00
 -1       152 7.08271E+00 8.44909E-01 0.00000E+00
 -1       153 7.14286E+00 8.49524E-01 0.00000E+00
 -1       154 7.20301E+00 8.54139E-01 0.00000E+00
 -1       155 7.26316E+00 8.58755E-01 0.00000E+00
 -1       156 7.32331E+00 8.63370E-01 0.00000E+00
 -1       157 7.38346E+00 8.67985E-01 0.00000E+00
 -1       158 7.44361E+00 8.72600E-01 0.00000E+00
 -1       159 7.50376E+00 8.77216E-01 0.00000E+00
 -1       160 7.56391E+00 8.81831E-01 0.00000E+00
 -1       161 7.62406E+00 8.86446E-01 0.00000E+00
 -1       162 7.68421E+00 8.91062E-01 0.00000E+00
 -1       163 7.74436E+00 8.95677E-01 0.00000E+00
 -1       164 7.80451E+00 9.00292E-01 0.00000E+00
 -1       165 7.86466E+00 9.04907E-01 0.00000E+00
 -1       166 7.92481E+00 9.09523E-01 0.00000E+00
 -1       167 7.98496E+00 9.14138E-01 0.00000E+00
 -1       168 8.04511E+00 9.18753E-01 0.00000E+00
 -1       169 8.10526E+00 9.23369E-01 0.00000E+00
 -1       170 8.16541E+00 9.27984E-01 0.00000E+00
 -1       171 8.22556E+00 9.32599E-01 0.00000E+00
 -1       172 8.28571E+00 9.37214E-01 0.00000E+00
 -1       173 8.34586E+00 9.41830E-01 0.00000E+00
 -1       174 8.40602E+00 9.46445E-01 0.00000E+00
 -1       175 8.46617E+00 9.51060E-01 0.00000E+00
 -1       176 8.52632E+00 9.55676E-01 0.00000E+00
 -1       177 8.58647E+00 9.60291E-01 0.00000E+00
 -1       178 8.64662E+00 9.64906E-01 0.00000E+00
 -1       179 8.70677E+00 9.69521E-01 0.00000E+00
 -1       180 8.76692E+00 9.74137E-01 0.00000E+00
 -1       181 8.82707E+00 9.78752E-01 0.00000E+00
 -1       182 8.88722E+00 9.83367E-01 0.00000E+00
 -1       183 8.94737E+00 9.87983E-01 0.00000E+00
 -1       184 9.00752E+00 9.92598E-01 0.00000E+00
 -1       185 9.06767E+00 9.97213E-01 0.00000E+00
 -1       186 9.12782E+00 1.00183E+00 0.00000E+00
 -1       187 9.18797E+00 1.00644E+00 0.00000E+00
 -1       188 9.24812E+00 1.01106E+00 0.00000E+00
 -1       189 9.30827E+00 1.01567E+00 0.00000E+00
 -1       190 9.36842E+00 1.02029E+00 0.00000E+00
 -1       191 9.42857E+00 1.02490E+00 0.00000E+00
 -1       192 9.48872E+00 1.02952E+00 0.00000E+00
 -1       193 9.54887E+00 1.03414E+00 0.00000E+00
 -1       194 9.60902E+00 1.03875E+00 0.00000E+00
 -1       195 9.66917E+00 1.04337E+00 0.00000E+00
 -1       196 9.72932E+00 1.04798E+00 0.00000E+00
 -1       197 9.78947E+00 1.05260E+00 0.00000E+00
 -1       198 9.84962E+00 1.05721E+00 0.00000E+00
 -1       199 9.90977E+00 1.06183E+00 0.00000E+00
 -1       200 9.96992E+00 1.06644E+00 0.00000E+00
 -1       201 1.00301E+01 1.07106E+00 0.00000E+00
 -1       202 1.00902E+01 1.07567E+00 0.00000E+00
 -1       203 1.01504E+01 1.08029E+00 0.00000E+00
 -1       204 1.02105E+01 1.08490E+00 0.00000E+00
 -1       205 1.02707E+01 1.08952E+00 0.00000E+00
 -1       206 1.03308E+01 1.09413E+00 0.00000E+00
 -1       207 1.03910E+01 1.09875E+00 0.00000E+00
 -1       208 1.04511E+01 1.10336E+00 0.00000E+00
 -1       209 1.05113E+01 1.10798E+00 0.00000E+00
 -1       210 1.05714E+01 1.11260E+00 0.00000E+00
 -1       211 1.06316E+01 1.11721E+00 0.00000E+00
 -1       212 1.06917E+01 1.12183E+00 0.00000E+00
 -1       213 1.07519E+01 1.12644E+00 0.00000E+00
 -1       214 1.08120E+01 1.13106E+00 0.00000E+00
 -1       215 1.08722E+01 1.13567E+00 0.00000E+00
 -1       216 1.09323E+01 1.14029E+00 0.00000E+00
 -1       217 1.09925E+01 1.14490E+00 0.00000E+00
 -1       218 1.10526E+01 1.14952E+00 0.00000E+00
 -1       219 1.11128E+01 1.15413E+00 0.00000E+00
 -1       220 1.11729E+01 1.15875E+00 0.00000E+00
 -1       221 1.12331E+01 1.16336E+00 0.00000E+00
 -1       222 1.12932E+01 1.16798E+00 0.00000E+00
 -1       223 1.13534E+01 1.17259E+00 0.00000E+00
 -1       224 1.14135E+01 1.17721E+00 0.00000E+00
 -1       225 1.14737E+01 1.18182E+00 0.00000E+00
 -1       226 1.15338E+01 1.18644E+00 0.00000E+00
 -1       227 1.15940E+01 1.19106E+00 0.00000E+00
 -1       228 1.16541E+01 1.19567E+00 0.00000E+00
 -1       229 1.17143E+01 1.20029E+00 0.00000E+00
 -1       230 1.17744E+01 1.20490E+00 0.00000E+00
 -1       231 1.18346E+01 1.20952E+00 0.00000E+00
 -1       232 1.18947E+01 1.21413E+00 0.00000E+00
 -1       233 1.19549E+01 1.21875E+00 0.00000E+00
 -1       234 1.20150E+01 1.22336E+00 0.00000E+00
 -1       235 1.20752E+01 1.22798E+00 0.00000E+00
 -1       236 1.21353E+01 1.23259E+00 0.00000E+00
 -1       237 1.21955E+01 1.23721E+00 0.00000E+00
 -1       238 1.22556E+01 1.24182E+00 0.00000E+00
 -1       239 1.23158E+01 1.24644E+00 0.00000E+00
 -1       240 1.23759E+01 1.25105E+00 0.00000E+00
 -1       241 1.24361E+01 1.25567E+00 0.00000E+00
 -1       242 1.24962E+01 1.26028E+00 0.00000E+00
 -1       243 1.25564E+01 1.26490E+00 0.00000E+00
 -1       244 1.26165E+01 1.26951E+00 0.00000E+00
 -1       245 1.26767E+01 1.27413E+00 0.00000E+00
 -1       246 1.27368E+01 1.27875E+00 0.00000E+00
 -1       247 1.27970E+01 1.28336E+00 0.00000E+00
 -1       248 1.28571E+01 1.28798E+00 0.00000E+00
 -1       249 1.29173E+01 1.29259E+00 0.00000E+00
 -1       250 1.29774E+01 1.29721E+00 0.00000E+00
 -1       251 1.30376E+01 1.30163E+00 0.00000E+00
 -1       252 1.30977E+01 1.30515E+00 0.00000E+00
 -1       253 1.31579E+01 1.30771E+00 0.00000E+00
 -1       254 1.32180E+01 1.30931E+00 0.00000E+00
 -1       255 1.32782E+01 1.31001E+00 0.00000E+00
 -1       256 1.33383E+01 1.30981E+00 0.00000E+00
 -1       257 1.33985E+01 1.30878E+00 0.00000E+00
 -1       258 1.34586E+01 1.30695E+00 0.00000E+00
 -1       259 1.35188E+01 1.30439E+00 0.00000E+00
 -1       260 1.35789E+01 1.30116E+00 0.00000E+00
 -1       261 1.36391E+01 1.29734E+00 0.00000E+00
 -1       262 1.36992E+01 1.29299E+00 0.00000E+00
 -1       263 1.37594E+01 1.28819E+00 0.00000E+00
 -1       264 1.38195E+01 1.28303E+00 0.00000E+00
 -1       265 1.38797E+01 1.27761E+00 0.00000E+00
 -1       266 1.39398E+01 1.27199E+00 0.00000E+00
 -1       267 1.40000E+01 1.26629E+00 0.00000E+00
 -1       268 1.40455E+01 1.26198E+00 0.00000E+00
 -1       269 1.40909E+01 1.25770E+00 0.00000E+00
 -1       270 1.41364E+01 1.25350E+00 0.00000E+00
 -1       271 1.41818E+01 1.24942E+00 0.00000E+00
 -1       272 1.42273E+01 1.24550E+00 0.00000E+00
 -1       273 1.42727E+01 1.24176E+00 0.00000E+00
 -1       274 1.43182E+01 1.23826E+00 0.00000E+00
 -1       275 1.43636E+01 1.23502E+00 0.00000E+00
 -1       276 1.44091E+01 1.23207E+00 0.00000E+00
 -1       277 1.44545E+01 1.22946E+00 0.00000E+00
 -1       278 1.45000E+01 1.22721E+00 0.00000E+00
 -1       279 1.45455E+01 1.22534E+00 0.00000E+00
 -1       280 1.45909E+01 1.22389E+00 0.00000E+00
 -1       281 1.46364E+01 1.22288E+00 0.00000E+00
 -1       282 1.46818E+01 1.22233E+00 0.00000E+00
 -1       283 1.47273E+01 1.22227E+00 0.00000E+00
 -1       284 1.47727E+01 1.22270E+00 0.00000E+00
 -1       285 1.48182E+01 1.22365E+00 0.00000E+00
 -1       286 1.48636E+01 1.22512E+00 0.00000E+00
 -1       287 1.49091E+01 1.22713E+00 0.00000E+00
 -1       288 1.49545E+01 1.22968E+00 0.00000E+00
 -1       289 1.50000E+01 1.23277E+00 0.00000E+00
 -1       290 1.50455E+01 1.23614E+00 0.00000E+00
 -1       291 1.50909E+01 1.23949E+00 0.00000E+00
 -1       292 1.51364E+01 1.24283E+00 0.00000E+00
 -1       293 1.51818E+01 1.24616E+00 0.00000E+00
 -1       294 1.52273E+01 1.24947E+00 0.00000E+00
 -1       295 1.52727E+01 1.25277E+00 0.00000E+00
 -1       296 1.53182E+01 1.25606E+00 0.00000E+00
 -1       297 1.53636E+01 1.25934E+00 0.00000E+00
 -1       298 1.54091E+01 1.26260E+00 0.00000E+00
 -1       299 1.54545E+01 1.26584E+00 0.00000E+00
 -1       300 1.55000E+01 1.26907E+00 0.00000E+00
 -1       301 1.55455E+01 1.27229E+00 0.00000E+00
 -1       302 1.55909E+01 1.27549E+00 0.00000E+00
 -1       303 1.56364E+01 1.27867E+00 0.00000E+00
 -1       304 1.56818E+01 1.28183E+00 0.00000E+00
 -1       305 1.57273E+01 1.28498E+00 0.00000E+00
 -1       306 1.57727E+01 1.28811E+00 0.00000E+00
 -1       307 1.58182E+01 1.29122E+00 0.00000E+00
 -1       308 1.58636E+01 1.29431E+00 0.00000E+00
 -1       309 1.59091E+01 1.29738E+00 0.00000E+00
 -1       310 1.59545E+01 1.30043E+00 0.00000E+00
 -1       311 1.60000E+01 1.30346E+00 0.00000E+00
 -1       312 1.60455E+01 1.30647E+00 0.00000E+00
 -1       313 1.60909E+01 1.30946E+00 0.00000E+00
 -1       314 1.61364E+01 1.31242E+00 0.00000E+00
 -1       315 1.61818E+01 1.31537E+00 0.00000E+00
 -1       316 1.62273E+01 1.31829E+00 0.00000E+00
 -1       317 1.62727E+01 1.32119E+00 0.00000E+00
 -1       318 1.63182E+01 1.32407E+00 0.00000E+00
 -1       319 1.63636E+01 1.32692E+00 0.00000E+00
 -1       320 1.64091E+01 1.32975E+00 0.00000E+00
 -1       321 1.64545E+01 1.33255E+00 0.00000E+00
 -1       322 1.65000E+01 1.33533E+00 0.00000E+00
 -1       323 1.65455E+01 1.33809E+00 0.00000E+00
 -1       324 1.65909E+01 1.34082E+00 0.00000E+00
 -1       325 1.66364E+01 1.34352E+00 0.00000E+00
 -1       326 1.66818E+01 1.34620E+00 0.00000E+00
 -1       327 1.67273E+01 1.34885E+00 0.00000E+00
 -1       328 1.67727E+01 1.35147E+00 0.00000E+00
 -1       329 1.68182E+01 1.35406E+00 0.00000E+00
 -1       330 1.68636E+01 1.35663E+00 0.00000E+00
 -1       331 1.69091E+01 1.35917E+00 0.00000E+00
 -1       332 1.69545E+01 1.36168E+00 0.00000E+00
 -1       333 1.70000E+01 1.36416E+00 0.00000E+00
 -1       334 1.70455E+01 1.36661E+00 0.00000E+00
 -1       335 1.70909E+01 1.36903E+00 0.00000E+00
 -1       336 1.71364E+01 1.37142E+00 0.00000E+00
 -1       337 1.71818E+01 1.37378E+00 0.00000E+00
 -1       338 1.72273E+01 1.37611E+00 0.00000E+00
 -1       339 1.72727E+01 1.37841E+00 0.00000E+00
 -1       340 1.73182E+01 1.38068E+00 0.00000E+00
 -1       341 1.73636E+01 1.38292E+00 0.00000E+00
 -1       342 1.74091E+01 1.38512E+00 0.00000E+00
 -1       343 1.74545E+01 1.38730E+00 0.00000E+00
 -1       344 1.75000E+01 1.38944E+00 0.00000E+00
 -1       345 1.75455E+01 1.39154E+00 0.00000E+00
 -1       346 1.75909E+01 1.39362E+00 0.00000E+00
 -1       347 1.76364E+01 1.39566E+00 0.00000E+00
 -1       348 1.76818E+01 1.39766E+00 0.00000E+00
 -1       349 1.77273E+01 1.39963E+00 0.00000E+00
 -1       350 1.77727E+01 1.40157E+00 0.00000E+00
 -1       351 1.78182E+01 1.40347E+00 0.00000E+00
 -1       352 1.78636E+01 1.40534E+00 0.00000E+00
 -1       353 1.79091E+01 1.40718E+00 0.00000E+00
 -1       354 1.79545E+01 1.40897E+00 0.00000E+00
 -1       355 1.80000E+01 1.41073E+00 0.00000E+00
 -1       356 1.80455E+01 1.41246E+00 0.00000E+00
 -1       357 1.80909E+01 1.41415E+00 0.00000E+00
 -1       358 1.81364E+01 1.41580E+00 0.00000E+00
 -1       359 1.81818E+01 1.41742E+00 0.00000E+00
 -1       360 1.82273E+01 1.41900E+00 0.00000E+00
 -1       361 1.82727E+01 1.42054E+00 0.00000E+00
 -1       362 1.83182E+01 1.42205E+00 0.00000E+00
 -1       363 1.83636E+01 1.42351E+00 0.00000E+00
 -1       364 1.84091E+01 1.42494E+00 0.00000E+00
 -1       365 1.84545E+01 1.42634E+00 0.00000E+00
 -1       366 1.85000E+01 1.42769E+00 0.00000E+00
 -1       367 1.85455E+01 1.42901E+00 0.00000E+00
 -1       368 1.85909E+01 1.43028E+00 0.00000E+00
 -1       369 1.86364E+01 1.43152E+00 0.00000E+00
 -1       370 1.86818E+01 1.43272E+00 0.00000E+00
 -1       371 1.87273E+01 1.43388E+00 0.00000E+00
 -1       372 1.87727E+01 1.43500E+00 0.00000E+00
 -1       373 1.88182E+01 1.43608E+00 0.00000E+00
 -1       374 1.88636E+01 1.43713E+00 0.00000E+00
 -1       375 1.89091E+01 1.43813E+00 0.00000E+00
 -1       376 1.89545E+01 1.43909E+00 0.00000E+00
 -1       377 1.90000E+01 1.44001E+00 0.00000E+00
 -1       378 1.90455E+01 1.44090E+00 0.00000E+00
 -1       379 1.90909E+01 1.44174E+00 0.00000E+00
 -1       380 1.91364E+01 1.44254E+00 0.00000E+00
 -1       381 1.91818E+01 1.44330E+00 0.00000E+00
 -1       382 1.92273E+01 1.44402E+00 0.00000E+00
 -1       383 1.92727E+01 1.44470E+00 0.00000E+00
 -1       384 1.93182E+01 1.44534E+00 0.00000E+00
 -1       385 1.93636E+01 1.44594E+00 0.00000E+00
 -1       386 1.94091E+01 1.44650E+00 0.00000E+00
 -1       387 1.94545E+01 1.44702E+00 0.00000E+00
 -1       388 1.95000E+01 1.44749E+00 0.00000E+00
 -1       389 1.95455E+01 1.44793E+00 0.00000E+00
 -1       390 1.95909E+01 1.44832E+00 0.00000E+00
 -1       391 1.96364E+01 1.44867E+00 0.00000E+00
 -1       392 1.96818E+01 1.44898E+00 0.00000E+00
 -1       393 1.97273E+01 1.44925E+00 0.00000E+00
 -1       394 1.97727E+01 1.44948E+00 0.00000E+00
 -1       395 1.98182E+01 1.44967E+00 0.00000E+00
 -1       396 1.98636E+01 1.44981E+00 0.00000E+00
 -1       397 1.99091E+01 1.44992E+00 0.00000E+00
 -1       398 1.99545E+01 1.44998E+00 0.00000E+00
 -1       399 2.00000E+01 1.45000E+00 0.00000E+00
 -1       400 2.00000E+01 9.50000E-01 0.00000E+00
 -1       401 1.99545E+01 9.49979E-01 0.00000E+00
 -1       402 1.99091E+01 9.49917E-01 0.00000E+00
 -1       403 1.98636E+01 9.49813E-01 0.00000E+00
 -1       404 1.98182E+01 9.49668E-01 0.00000E+00
 -1       405 1.97727E+01 9.49481E-01 0.00000E+00
 -1       406 1.97273E+01 9.49253E-01 0.00000E+00
 -1       407 1.96818E+01 9.48984E-01 0.00000E+00
 -1       408 1.96364E+01 9.48673E-01 0.00000E+00
 -1       409 1.95909E+01 9.48321E-01 0.00000E+00
 -1       410 1.95455E+01 9.47927E-01 0.00000E+00
 -1       411 1.95000E+01 9.47493E-01 0.00000E+00
 -1       412 1.94545E+01 9.47017E-01 0.00000E+00
 -1       413 1.94091E+01 9.46500E-01 0.00000E+00
 -1       414 1.93636E+01 9.45942E-01 0.00000E+00
 -1       415 1.93182E+01 9.45343E-01 0.00000E+00
 -1       416 1.92727E+01 9.44704E-01 0.00000E+00
 -1       417 1.92273E+01 9.44023E-01 0.00000E+00
 -1       418 1.91818E+01 9.43302E-01 0.00000E+00
 -1       419 1.91364E+01 9.42541E-01 0.00000E+00
 -1       420 1.90909E+01 9.41738E-01 0.00000E+00
 -1       421 1.90455E+01 9.40896E-01 0.00000E+00
 -1       422 1.90000E+01 9.40013E-01 0.00000E+00
 -1       423 1.89545E+01 9.39091E-01 0.00000E+00
 -1       424 1.89091E+01 9.38128E-01 0.00000E+00
 -1       425 1.88636E+01 9.37126E-01 0.00000E+00
 -1       426 1.88182E+01 9.36083E-01 0.00000E+00
 -1       427 1.87727E+01 9.35002E-01 0.00000E+00
 -1       428 1.87273E+01 9.33881E-01 0.00000E+00
 -1       429 1.86818E+01 9.32720E-01 0.00000E+00
 -1       430 1.86364E+01 9.31521E-01 0.00000E+00
 -1       431 1.85909E+01 9.30283E-01 0.00000E+00
 -1       432 1.85455E+01 9.29006E-01 0.00000E+00
 -1       433 1.85000E+01 9.27690E-01 0.00000E+00
 -1       434 1.84545E+01 9.26337E-01 0.00000E+00
 -1       435 1.84091E+01 9.24945E-01 0.00000E+00
 -1       436 1.83636E+01 9.23515E-01 0.00000E+00
 -1       437 1.83182E+01 9.22047E-01 0.00000E+00
 -1       438 1.82727E+01 9.20542E-01 0.00000E+00
 -1       439 1.82273E+01 9.18999E-01 0.00000E+00
 -1       440 1.81818E+01 9.17419E-01 0.00000E+00
 -1       441 1.81364E+01 9.15803E-01 0.00000E+00
 -1       442 1.80909E+01 9.14150E-01 0.00000E+00
 -1       443 1.80455E+01 9.12460E-01 0.00000E+00
 -1       444 1.80000E+01 9.10734E-01 0.00000E+00
 -1       445 1.79545E+01 9.08972E-01 0.00000E+00
 -1       446 1.79091E+01 9.07175E-01 0.00000E+00
 -1       447 1.78636E+01 9.05342E-01 0.00000E+00
 -1       448 1.78182E+01 9.03474E-01 0.00000E+00
 -1       449 1.77727E+01 9.01571E-01 0.00000E+00
 -1       450 1.77273E+01 8.99633E-01 0.00000E+00
 -1       451 1.76818E+01 8.97661E-01 0.00000E+00
 -1       452 1.76364E+01 8.95655E-01 0.00000E+00
 -1       453 1.75909E+01 8.93615E-01 0.00000E+00
 -1       454 1.75455E+01 8.91542E-01 0.00000E+00
 -1       455 1.75000E+01 8.89435E-01 0.00000E+00
 -1       456 1.74545E+01 8.87296E-01 0.00000E+00
 -1       457 1.74091E+01 8.85123E-01 0.00000E+00
 -1       458 1.73636E+01 8.82919E-01 0.00000E+00
 -1       459 1.73182E+01 8.80682E-01 0.00000E+00
 -1       460 1.72727E+01 8.78414E-01 0.00000E+00
 -1       461 1.72273E+01 8.76115E-01 0.00000E+00
 -1       462 1.71818E+01 8.73784E-01 0.00000E+00
 -1       463 1.71364E+01 8.71423E-01 0.00000E+00
 -1       464 1.70909E+01 8.69031E-01 0.00000E+00
 -1       465 1.70455E+01 8.66609E-01 0.00000E+00
 -1       466 1.70000E+01 8.64158E-01 0.00000E+00
 -1       467 1.69545E+01 8.61677E-01 0.00000E+00
 -1       468 1.69091E+01 8.59167E-01 0.00000E+00
 -1       469 1.68636E+01 8.56629E-01 0.00000E+00
 -1       470 1.68182E+01 8.54062E-01 0.00000E+00
 -1       471 1.67727E+01 8.51467E-01 0.00000E+00
 -1       472 1.67273E+01 8.48845E-01 0.00000E+00
 -1       473 1.66818E+01 8.46196E-01 0.00000E+00
 -1       474 1.66364E+01 8.43520E-01 0.00000E+00
 -1       475 1.65909E+01 8.40817E-01 0.00000E+00
 -1       476 1.65455E+01 8.38089E-01 0.00000E+00
 -1       477 1.65000E+01 8.35334E-01 0.00000E+00
 -1       478 1.64545E+01 8.32555E-01 0.00000E+00
 -1       479 1.64091E+01 8.29750E-01 0.00000E+00
 -1       480 1.63636E+01 8.26922E-01 0.00000E+00
 -1       481 1.63182E+01 8.24069E-01 0.00000E+00
 -1       482 1.62727E+01 8.21192E-01 0.00000E+00
 -1       483 1.62273E+01 8.18292E-01 0.00000E+00
 -1       484 1.61818E+01 8.15369E-01 0.00000E+00
 -1       485 1.61364E+01 8.12424E-01 0.00000E+00
 -1       486 1.60909E+01 8.09457E-01 0.00000E+00
 -1       487 1.60455E+01 8.06468E-01 0.00000E+00
 -1       488 1.60000E+01 8.03458E-01 0.00000E+00
 -1       489 1.59545E+01 8.00427E-01 0.00000E+00
 -1       490 1.59091E+01 7.97376E-01 0.00000E+00
 -1       491 1.58636E+01 7.94306E-01 0.00000E+00
 -1       492 1.58182E+01 7.91215E-01 0.00000E+00
 -1       493 1.57727E+01 7.88106E-01 0.00000E+00
 -1       494 1.57273E+01 7.84978E-01 0.00000E+00
 -1       495 1.56818E+01 7.81832E-01 0.00000E+00
 -1       496 1.56364E+01 7.78668E-01 0.00000E+00
 -1       497 1.55909E+01 7.75487E-01 0.00000E+00
 -1       498 1.55455E+01 7.72289E-01 0.00000E+00
 -1       499 1.55000E+01 7.69075E-01 0.00000E+00
 -1       500 1.54545E+01 7.65845E-01 0.00000E+00
 -1       501 1.54091E+01 7.62599E-01 0.00000E+00
 -1       502 1.53636E+01 7.59339E-01 0.00000E+00
 -1       503 1.53182E+01 7.56064E-01 0.00000E+00
 -1       504 1.52727E+01 7.52775E-01 0.00000E+00
 -1       505 1.52273E+01 7.49472E-01 0.00000E+00
 -1       506 1.51818E+01 7.46156E-01 0.00000E+00
 -1       507 1.51364E+01 7.42828E-01 0.00000E+00
 -1       508 1.50909E+01 7.39488E-01 0.00000E+00
 -1       509 1.50455E+01 7.36135E-01 0.00000E+00
 -1       510 1.50000E+01 7.32772E-01 0.00000E+00
 -1       511 1.49545E+01 7.29119E-01 0.00000E+00
 -1       512 1.49091E+01 7.24900E-01 0.00000E+00
 -1       513 1.48636E+01 7.20120E-01 0.00000E+00
 -1       514 1.48182E+01 7.14785E-01 0.00000E+00
 -1       515 1.47727E+01 7.08907E-01 0.00000E+00
 -1       516 1.47273E+01 7.02499E-01 0.00000E+00
 -1       517 1.46818E+01 6.95575E-01 0.00000E+00
 -1       518 1.46364E+01 6.88156E-01 0.00000E+00
 -1       519 1.45909E+01 6.80260E-01 0.00000E+00
 -1       520 1.45455E+01 6.71912E-01 0.00000E+00
 -1       521 1.45000E+01 6.63136E-01 0.00000E+00
 -1       522 1.44545E+01 6.53961E-01 0.00000E+00
 -1       523 1.44091E+01 6.44417E-01 0.00000E+00
 -1       524 1.43636E+01 6.34533E-01 0.00000E+00
 -1       525 1.43182E+01 6.24345E-01 0.00000E+00
 -1       526 1.42727E+01 6.13886E-01 0.00000E+00
 -1       527 1.42273E+01 6.03192E-01 0.00000E+00
 -1       528 1.41818E+01 5.92301E-01 0.00000E+00
 -1       529 1.41364E+01 5.81252E-01 0.00000E+00
 -1       530 1.40909E+01 5.70082E-01 0.00000E+00
 -1       531 1.40455E+01 5.58832E-01 0.00000E+00
 -1       532 1.40000E+01 5.47541E-01 0.00000E+00
 -1       533 1.39398E+01 5.32607E-01 0.00000E+00
 -1       534 1.38797E+01 5.17765E-01 0.00000E+00
 -1       535 1.38195E+01 5.03106E-01 0.00000E+00
 -1       536 1.37594E+01 4.88721E-01 0.00000E+00
 -1       537 1.36992E+01 4.74695E-01 0.00000E+00
 -1       538 1.36391E+01 4.61113E-01 0.00000E+00
 -1       539 1.35789E+01 4.48055E-01 0.00000E+00
 -1       540 1.35188E+01 4.35596E-01 0.00000E+00
 -1       541 1.34586E+01 4.23807E-01 0.00000E+00
 -1       542 1.33985E+01 4.12751E-01 0.00000E+00
 -1       543 1.33383E+01 4.02485E-01 0.00000E+00
 -1       544 1.32782E+01 3.93061E-01 0.00000E+00
 -1       545 1.32180E+01 3.84521E-01 0.00000E+00
 -1       546 1.31579E+01 3.76899E-01 0.00000E+00
 -1       547 1.30977E+01 3.70224E-01 0.00000E+00
 -1       548 1.30376E+01 3.64513E-01 0.00000E+00
 -1       549 1.29774E+01 3.59707E-01 0.00000E+00
 -1       550 1.29173E+01 3.55091E-01 0.00000E+00
 -1       551 1.28571E+01 3.50476E-01 0.00000E+00
 -1       552 1.27970E+01 3.45861E-01 0.00000E+00
 -1       553 1.27368E+01 3.41245E-01 0.00000E+00
 -1       554 1.26767E+01 3.36630E-01 0.00000E+00
 -1       555 1.26165E+01 3.32015E-01 0.00000E+00
 -1       556 1.25564E+01 3.27400E-01 0.00000E+00
 -1       557 1.24962E+01 3.22784E-01 0.00000E+00
 -1       558 1.24361E+01 3.18169E-01 0.00000E+00
 -1       559 1.23759E+01 3.13554E-01 0.00000E+00
 -1       560 1.23158E+01 3.08938E-01 0.00000E+00
 -1       561 1.22556E+01 3.04323E-01 0.00000E+00
 -1       562 1.21955E+01 2.99708E-01 0.00000E+00
 -1       563 1.21353E+01 2.95093E-01 0.00000E+00
 -1       564 1.20752E+01 2.90477E-01 0.00000E+00
 -1       565 1.20150E+01 2.85862E-01 0.00000E+00
 -1       566 1.19549E+01 2.81247E-01 0.00000E+00
 -1       567 1.18947E+01 2.76631E-01 0.00000E+00
 -1       568 1.18346E+01 2.72016E-01 0.00000E+00
 -1       569 1.17744E+01 2.67401E-01 0.00000E+00
 -1       570 1.17143E+01 2.62786E-01 0.00000E+00
 -1       571 1.16541E+01 2.58170E-01 0.00000E+00
 -1       572 1.15940E+01 2.53555E-01 0.00000E+00
 -1       573 1.15338E+01 2.48940E-01 0.00000E+00
 -1       574 1.14737E+01 2.44324E-01 0.00000E+00
 -1       575 1.14135E+01 2.39709E-01 0.00000E+00
 -1       576 1.13534E+01 2.35094E-01 0.00000E+00
 -1       577 1.12932E+01 2.30479E-01 0.00000E+00
 -1       578 1.12331E+01 2.25863E-01 0.00000E+00
 -1       579 1.11729E+01 2.21248E-01 0.00000E+00
 -1       580 1.11128E+01 2.16633E-01 0.00000E+00
 -1       581 1.10526E+01 2.12017E-01 0.00000E+00
 -1       582 1.09925E+01 2.07402E-01 0.00000E+00